ITEM: TIMESTEP
363200
ITEM: NUMBER OF ATOMS
1000
ITEM: BOX BOUNDS pp pp pp
0 9.41036
0 9.41036
0 9.41036
ITEM: ATOMS id type xs ys zs
352 2 0.260651 0.26712 0.244915
711 2 0.082562 0.105673 0.187715
609 2 0.0594321 0.0596521 0.0699974
596 2 0.16548 0.046299 0.161473
101 1 0.107975 0.133164 0.0829143
642 2 0.0452327 0.155991 0.0132183
933 2 0.459695 0.0278584 0.00851728
646 2 0.266952 0.0915237 0.00196012
481 2 0.194553 0.129372 0.0917185
271 2 0.276683 0.0627359 0.147698
780 2 0.250257 0.165712 0.210148
618 2 0.316587 0.142866 0.0916779
590 2 0.220579 0.015637 0.0638143
566 2 0.322696 0.00316735 0.0701516
402 2 0.392814 0.383338 0.0556261
7 1 0.440401 0.0330875 0.191814
348 2 0.415011 0.0764297 0.102473
860 2 0.369379 0.106743 0.202943
886 2 0.473123 0.13656 0.0222453
963 2 0.488059 0.113257 0.198819
944 2 0.367014 0.0914639 0.00194757
738 2 0.15049 0.19654 0.165942
367 2 0.0157707 0.166834 0.117077
525 2 0.0228035 0.257498 0.0539081
635 2 0.0544732 0.19621 0.237317
483 2 0.139679 0.295788 0.130471
322 2 0.134641 0.218209 0.040183
942 2 0.010301 0.290364 0.172296
168 1 0.0706867 0.231153 0.144997
444 2 0.126121 0.329534 0.0224956
637 2 0.139347 0.291333 0.240632
65 1 0.242466 0.192901 0.0600532
649 2 0.252978 0.245651 0.133373
312 2 0.225055 0.279537 0.0343345
118 1 0.311157 0.30043 0.18036
422 2 0.341564 0.290624 0.0907015
842 2 0.483044 0.212866 0.162751
720 2 0.361497 0.216293 0.170314
378 2 0.408054 0.210783 0.0681629
102 1 0.434996 0.290608 0.0956835
686 2 0.421653 0.304726 0.180575
11 1 0.0925324 0.018829 0.203432
174 1 0.0349503 0.341198 0.0219339
199 1 0.0835975 0.345721 0.191131
721 2 0.00700246 0.39508 0.191746
320 2 0.0575965 0.37405 0.100758
962 2 0.136517 0.42073 0.186539
171 1 0.0652261 0.46081 0.138146
412 2 0.377815 0.495751 0.245527
233 2 0.15177 0.486143 0.105549
785 2 0.234984 0.483798 0.0117802
666 2 0.225563 0.353871 0.175847
981 2 0.284882 0.388909 0.0843293
429 2 0.24574 0.459554 0.193273
685 2 0.181467 0.38948 0.0813
323 2 0.341007 0.396478 0.195784
652 2 0.323922 0.488596 0.124759
960 2 0.442021 0.417697 0.145554
188 1 0.476653 0.415738 0.0559366
819 2 0.316752 0.222788 0.00495348
519 2 0.142393 0.0909686 0.00254815
145 1 0.141857 0.162271 0.372408
978 2 0.011192 0.0411193 0.442782
990 2 0.0860083 0.110601 0.30946
508 2 0.446306 0.403926 0.252963
405 2 0.160216 0.0671722 0.390464
294 2 0.0583859 0.134304 0.410757
268 2 0.106911 0.0442773 0.495792
26 1 0.0391254 0.0348618 0.353108
288 2 0.0177097 0.031219 0.265287
655 2 0.449894 0.473866 0.345229
630 2 0.295699 0.0326723 0.444466
684 2 0.299236 0.0517024 0.265589
96 1 0.247779 0.0729851 0.352814
427 2 0.28069 0.16196 0.315621
120 1 0.208533 0.0581095 0.460924
776 2 0.191362 0.0749117 0.27306
85 1 0.384317 0.0155452 0.270108
383 2 0.38748 0.124755 0.31579
46 1 0.470853 0.0667744 0.374069
463 2 0.416403 0.0525344 0.466676
868 2 0.471403 0.0390011 0.291904
445 2 0.336763 0.131888 0.414007
428 2 0.378191 0.0313183 0.364201
697 2 0.449616 0.163552 0.410001
934 2 0.0438534 0.222226 0.465129
468 2 0.0881524 0.229224 0.329917
249 2 0.151541 0.237043 0.42455
169 1 0.0932723 0.300144 0.456571
100 1 0.00348734 0.167282 0.332313
256 2 0.0464247 0.34262 0.283299
339 2 0.469292 0.392396 0.403174
650 2 0.164 0.184237 0.274054
325 2 0.232673 0.143023 0.41337
247 2 0.241132 0.2824 0.452851
561 2 0.200619 0.288498 0.334231
21 1 0.28723 0.22181 0.395465
854 2 0.304498 0.331749 0.382752
975 2 0.139348 0.143928 0.481186
436 2 0.472757 0.308855 0.308232
19 1 0.459959 0.223865 0.34189
729 2 0.365163 0.235063 0.355629
591 2 0.461236 0.282028 0.411276
40 1 0.41699 0.217532 0.472628
495 2 0.356466 0.30761 0.271398
956 2 0.367167 0.311799 0.46751
628 2 0.424552 0.216707 0.25678
423 2 0.324658 0.211372 0.483973
929 2 0.0719476 0.465893 0.264942
310 2 0.112225 0.330861 0.375772
902 2 0.0210122 0.403927 0.368682
543 2 0.0726842 0.459195 0.477919
880 2 0.115236 0.460273 0.37313
278 2 0.145794 0.373369 0.486424
496 2 0.147759 0.383845 0.290781
774 2 0.00747943 0.355783 0.457624
25 1 0.291251 0.483953 0.271416
700 2 0.213037 0.482297 0.309774
381 2 0.191227 0.480593 0.461149
660 2 0.295392 0.474227 0.381665
418 2 0.266024 0.372737 0.280415
954 2 0.262109 0.393532 0.493287
792 2 0.209315 0.395652 0.387798
223 2 0.367029 0.415924 0.435058
17 1 0.399683 0.339585 0.370731
1000 2 0.361484 0.40877 0.317033
407 2 0.00224147 0.284259 0.379129
128 1 0.491119 0.124756 0.484016
105 1 0.1316 0.0475402 0.659526
653 2 0.0771751 0.0942164 0.59487
450 2 0.0551382 0.0903259 0.73572
799 2 0.460103 0.39173 0.73461
330 2 0.12242 0.157116 0.672984
225 2 0.486222 0.114331 0.673604
945 2 0.0141988 0.122984 0.517896
88 1 0.213097 0.0208695 0.634039
991 2 0.203925 0.0942365 0.686548
414 2 0.19239 0.0837317 0.570501
747 2 0.30265 0.108517 0.521025
972 2 0.312259 0.0362623 0.618192
607 2 0.405554 0.494008 0.509627
533 2 0.269981 0.163385 0.630034
616 2 0.31368 0.108948 0.714028
707 2 0.477988 0.0664927 0.558227
744 2 0.428709 0.0279548 0.640159
181 1 0.376816 0.0599483 0.563407
240 2 0.384364 0.133532 0.63159
768 2 0.409117 0.144838 0.521355
788 2 0.411782 0.070731 0.741786
839 2 0.396757 0.347982 0.615435
762 2 0.063348 0.337946 0.551262
734 2 0.126033 0.242448 0.537339
513 2 0.0441411 0.212012 0.590155
520 2 0.102126 0.277991 0.696113
371 2 0.0168243 0.210962 0.707785
66 1 0.141162 0.158692 0.583472
350 2 0.196923 0.330927 0.736412
472 2 0.217998 0.203577 0.737061
816 2 0.182817 0.235548 0.632935
255 2 0.313563 0.258778 0.627536
93 1 0.259773 0.279461 0.703121
827 2 0.226937 0.315931 0.563382
218 2 0.223542 0.189958 0.523814
114 1 0.408049 0.170036 0.717388
146 1 0.342037 0.187655 0.574457
329 2 0.330055 0.215743 0.719877
361 2 0.366781 0.31668 0.715689
689 2 0.402865 0.256336 0.553589
579 2 0.428325 0.234249 0.655969
112 1 0.467288 0.32223 0.675771
94 1 0.325278 0.34806 0.548562
56 1 0.124124 0.491035 0.719541
936 2 0.267094 0.00806361 0.729979
211 2 0.151268 0.360116 0.632089
516 2 0.0910732 0.46511 0.632043
751 2 0.105695 0.393335 0.721213
38 1 0.103595 0.419528 0.555941
891 2 0.366252 0.430177 0.685627
507 2 0.0510821 0.0027636 0.662563
219 2 0.0135392 0.379463 0.661252
580 2 0.201355 0.450111 0.704141
523 2 0.271169 0.368032 0.658191
629 2 0.203056 0.451104 0.572605
878 2 0.321583 0.435793 0.589416
99 1 0.0219139 0.286796 0.640741
420 2 0.474216 0.443618 0.613537
266 2 0.444665 0.379757 0.518957
782 2 0.123345 0.0587946 0.828215
229 2 0.0628742 0.0881143 0.910811
98 1 0.118759 0.14696 0.850263
60 1 0.0335307 0.394046 0.770542
435 2 0.0259915 0.150125 0.827578
499 2 0.190418 0.102284 0.901117
627 2 0.277861 0.0462016 0.906313
390 2 0.228052 0.10319 0.799778
703 2 0.297397 0.168527 0.888292
542 2 0.453301 0.41283 0.845842
813 2 0.345636 0.462354 0.995097
527 2 0.332796 0.0564154 0.810844
70 1 0.35886 0.0992707 0.891999
957 2 0.449367 0.086115 0.851611
712 2 0.387745 0.0220262 0.91671
189 1 0.448785 0.0845825 0.94369
382 2 0.368219 0.154936 0.801633
545 2 0.0215759 0.304668 0.76973
124 1 0.0852723 0.259124 0.984059
521 2 0.112973 0.206191 0.77458
476 2 0.0619312 0.249691 0.858809
931 2 0.110216 0.187082 0.933699
634 2 0.161862 0.29482 0.912066
64 1 0.181626 0.277883 0.8044
131 1 0.283878 0.176974 0.797639
661 2 0.192471 0.203993 0.858685
692 2 0.213915 0.19104 0.966521
430 2 0.267608 0.2728 0.918778
695 2 0.274282 0.264107 0.800381
356 2 0.493712 0.155718 0.779388
236 2 0.321681 0.338308 0.988209
9 1 0.489202 0.216414 0.981829
424 2 0.438444 0.30456 0.995541
920 2 0.406525 0.16766 0.927816
163 1 0.371691 0.261962 0.794044
811 2 0.455582 0.255183 0.763074
316 2 0.367603 0.262411 0.882174
170 1 0.438554 0.202771 0.842303
576 2 0.47325 0.285027 0.871917
866 2 0.353001 0.350918 0.829863
68 1 0.440137 0.499642 0.978365
765 2 0.111624 0.33964 0.81652
393 2 0.0781757 0.464403 0.873029
764 2 0.0533579 0.32756 0.932694
178 1 0.11064 0.386275 0.898275
625 2 0.165643 0.436476 0.802167
301 2 0.116651 0.437608 0.994665
709 2 0.260169 0.49474 0.830631
518 2 0.294861 0.416333 0.904909
883 2 0.216947 0.375134 0.972477
969 2 0.2242 0.349402 0.850699
917 2 0.189188 0.471568 0.911241
279 2 0.359988 0.471035 0.79188
132 1 0.399504 0.375158 0.903175
619 2 0.455165 0.413937 0.962306
149 1 0.43495 0.331643 0.799867
983 2 0.2869 0.397327 0.765706
829 2 0.0396037 0.4798 0.768407
756 2 0.386207 0.481259 0.895892
176 1 0.0210122 0.0615532 0.986617
52 1 0.139387 0.114906 0.754425
505 2 0.0639977 0.547909 0.184525
999 2 0.0347162 0.573303 0.0710911
221 2 0.130764 0.591656 0.116173
798 2 0.167037 0.532888 0.2114
574 2 0.100405 0.627017 0.24737
201 2 0.469092 0.837477 0.226451
285 2 0.206444 0.645706 0.168783
624 2 0.230289 0.55341 0.0971232
789 2 0.280516 0.557598 0.194366
964 2 0.245618 0.622961 0.00376557
162 1 0.297676 0.552176 0.0320537
208 2 0.307387 0.666877 0.221455
614 2 0.148767 0.561793 0.0142608
380 2 0.467305 0.663323 0.013912
674 2 0.339471 0.602605 0.0998086
694 2 0.39393 0.599417 0.201932
184 1 0.401466 0.528811 0.155972
716 2 0.463559 0.590045 0.109837
326 2 0.476702 0.508483 0.214951
970 2 0.350684 0.87911 0.0502758
289 2 0.354468 0.980724 0.186225
342 2 0.458283 0.85364 0.0696319
286 2 0.0173399 0.646118 0.172074
260 2 0.0546178 0.750659 0.198509
905 2 0.0865946 0.72094 0.0951727
59 1 0.109005 0.807895 0.105082
775 2 0.166849 0.801644 0.0321003
41 1 0.123095 0.670934 0.166229
187 1 0.0225048 0.757849 0.0341992
470 2 0.174926 0.67417 0.0598757
291 2 0.382335 0.879651 0.167787
906 2 0.175088 0.755151 0.14251
761 2 0.266625 0.810453 0.0802648
693 2 0.292898 0.703531 0.115975
399 2 0.419957 0.961396 0.102843
548 2 0.339787 0.690762 0.0142032
161 1 0.461937 0.781685 0.136888
391 2 0.378095 0.748815 0.209199
309 2 0.379001 0.788258 0.0952292
910 2 0.417742 0.683497 0.12505
656 2 0.482373 0.719094 0.20886
438 2 0.0679376 0.87037 0.055972
413 2 0.0251149 0.98825 0.149704
264 2 0.118867 0.962895 0.0842322
433 2 0.0651725 0.86433 0.174121
746 2 0.147622 0.935561 0.216569
702 2 0.140289 0.812006 0.233611
63 1 0.309112 0.903234 0.218766
340 2 0.29061 0.80482 0.190697
205 2 0.248012 0.977254 0.210124
159 1 0.204221 0.954379 0.136302
215 2 0.176841 0.865615 0.128954
965 2 0.221512 0.91439 0.0342804
248 2 0.28378 0.902003 0.13225
643 2 0.475373 0.956281 0.200307
704 2 0.420161 0.503724 0.0715803
49 1 0.335049 0.798073 0.00874502
363 2 0.132172 0.554552 0.327528
539 2 0.11768 0.554424 0.438359
680 2 0.160992 0.652676 0.390299
212 2 0.0779081 0.665302 0.455415
809 2 0.0494468 0.624127 0.357507
311 2 0.196186 0.714349 0.257254
569 2 0.000625442 0.509048 0.349165
749 2 0.300822 0.50669 0.493613
493 2 0.320018 0.5677 0.30601
790 2 0.235858 0.570575 0.381645
372 2 0.217347 0.601761 0.28078
725 2 0.112142 0.999975 0.311607
130 1 0.235251 0.63958 0.446256
597 2 0.367017 0.553211 0.420929
853 2 0.448098 0.579531 0.306835
261 2 0.483214 0.54907 0.42706
61 1 0.352615 0.639122 0.362862
12 1 0.366012 0.500787 0.342276
295 2 0.0364015 0.922747 0.265653
623 2 0.49789 0.863892 0.45414
177 1 0.116508 0.810557 0.351629
851 2 0.127774 0.75951 0.440186
787 2 0.0436892 0.817467 0.288772
654 2 0.0954388 0.711642 0.315849
461 2 0.323081 0.651829 0.462953
234 2 0.271301 0.671537 0.348576
464 2 0.240647 0.733369 0.448092
494 2 0.205689 0.784556 0.359939
987 2 0.297745 0.758837 0.290982
119 1 0.336495 0.81407 0.357259
806 2 0.33277 0.801872 0.466256
715 2 0.398145 0.673441 0.283845
509 2 0.444821 0.648422 0.388778
613 2 0.449565 0.772053 0.308879
572 2 0.36019 0.728696 0.38739
503 2 0.450061 0.770622 0.42299
587 2 0.163988 0.865708 0.453785
773 2 0.0506379 0.831513 0.408752
717 2 0.0995704 0.961344 0.420367
919 2 0.124367 0.894466 0.330759
34 1 0.0406809 0.904498 0.360233
479 2 0.424617 0.934244 0.290215
62 1 0.284933 0.983855 0.376742
647 2 0.240373 0.861125 0.267985
536 2 0.214525 0.979708 0.325724
760 2 0.280005 0.882648 0.387923
321 2 0.205401 0.973064 0.436927
194 1 0.244515 0.82108 0.452108
869 2 0.322357 0.942359 0.30177
531 2 0.000622239 0.580906 0.268643
241 2 0.410081 0.862806 0.382843
626 2 0.360314 0.951626 0.435236
814 2 0.365665 0.849679 0.279328
726 2 0.467198 0.969034 0.392143
837 2 0.00535834 0.722922 0.386463
307 2 0.0681567 0.564309 0.673994
238 2 0.131553 0.644969 0.707359
864 2 0.113614 0.631597 0.592908
741 2 0.0302762 0.536086 0.575782
210 2 0.168003 0.541254 0.655144
43 1 0.0720827 0.589362 0.510483
898 2 0.294252 0.512679 0.704912
314 2 0.251612 0.617094 0.675587
8 1 0.197934 0.608299 0.606658
510 2 0.266906 0.663621 0.561502
107 1 0.30999 0.594959 0.535305
335 2 0.395685 0.878875 0.501215
758 2 0.266488 0.534811 0.601292
823 2 0.42062 0.517731 0.709958
577 2 0.465412 0.622108 0.657462
817 2 0.374494 0.545069 0.617766
305 2 0.371381 0.655523 0.588631
997 2 0.359343 0.622975 0.695559
605 2 0.486025 0.544324 0.583589
227 2 0.36848 0.974821 0.551372
54 1 0.491466 0.598361 0.74673
733 2 0.0832711 0.728165 0.643394
682 2 0.134152 0.776355 0.556968
53 1 0.0754683 0.701017 0.551512
277 2 0.0173516 0.821157 0.693279
815 2 0.126714 0.829184 0.658205
480 2 0.133667 0.528312 0.544785
117 1 0.00215973 0.720971 0.713434
164 1 0.0556568 0.806942 0.590409
560 2 0.301773 0.727638 0.652187
254 2 0.203321 0.713524 0.723464
409 2 0.190312 0.707782 0.620583
852 2 0.250477 0.781922 0.543981
3 1 0.334049 0.73786 0.535129
345 2 0.240179 0.976566 0.555427
778 2 0.421587 0.727872 0.513087
862 2 0.446518 0.689508 0.741071
44 1 0.349839 0.707883 0.726096
922 2 0.495507 0.665793 0.570101
297 2 0.352284 0.815844 0.580815
109 1 0.451881 0.822549 0.660038
447 2 0.455279 0.811057 0.574038
779 2 0.407706 0.739328 0.647551
955 2 0.136239 0.979168 0.597937
556 2 0.168143 0.678048 0.51402
900 2 0.0884616 0.876117 0.527343
882 2 0.448777 0.890053 0.724041
179 1 0.11077 0.923061 0.676654
287 2 0.0427137 0.893552 0.620966
874 2 0.417966 0.600692 0.503483
415 2 0.0366301 0.975729 0.546024
796 2 0.46754 0.965771 0.507456
925 2 0.245421 0.826025 0.656794
502 2 0.313058 0.920707 0.624413
952 2 0.28135 0.890122 0.508293
859 2 0.208968 0.933122 0.671796
893 2 0.187316 0.872235 0.573073
270 2 0.431763 0.911732 0.620667
300 2 0.366224 0.964286 0.713393
540 2 0.354492 0.84911 0.691393
404 2 0.145362 0.999682 0.735901
821 2 0.0345255 0.768788 0.505981
75 1 0.134636 0.94499 0.5089
830 2 0.220482 0.576237 0.511395
190 1 0.494284 0.883865 0.544988
675 2 0.000184096 0.648335 0.53981
50 1 0.0631185 0.629613 0.858014
504 2 0.0932207 0.565848 0.794902
389 2 0.118585 0.568196 0.906699
784 2 0.0407999 0.515793 0.972148
228 2 0.151645 0.663044 0.813574
940 2 0.0748523 0.645487 0.991944
665 2 0.0137097 0.553469 0.862738
245 2 0.0346135 0.649089 0.760716
123 1 0.170614 0.524171 0.832221
1 1 0.20531 0.561584 0.944794
961 2 0.232913 0.590853 0.85523
879 2 0.29473 0.538854 0.919766
771 2 0.307712 0.645357 0.915894
578 2 0.280443 0.657687 0.772976
110 1 0.398837 0.60364 0.7723
416 2 0.33961 0.584235 0.832614
755 2 0.449904 0.530104 0.815956
156 1 0.392143 0.587624 0.897444
812 2 0.476396 0.635021 0.827039
273 2 0.470762 0.565932 0.930267
993 2 0.100397 0.890399 0.76649
133 1 0.491705 0.813358 0.82122
15 1 0.473281 0.858408 0.973544
976 2 0.0872313 0.713629 0.885976
457 2 0.0746082 0.808904 0.965437
143 1 0.157272 0.761482 0.833714
217 2 0.00661971 0.728308 0.951886
526 2 0.174967 0.660204 0.925359
524 2 0.249244 0.7259 0.848683
639 2 0.170192 0.776041 0.919149
604 2 0.201354 0.813652 0.770507
767 2 0.334323 0.753087 0.921429
327 2 0.245074 0.730607 0.986011
610 2 0.270193 0.82925 0.855737
252 2 0.420293 0.791693 0.758929
138 1 0.356856 0.78628 0.837069
239 2 0.364641 0.692134 0.82459
570 2 0.411102 0.669398 0.927862
394 2 0.437661 0.771323 0.874994
732 2 0.419538 0.771774 0.985515
441 2 0.0865297 0.820027 0.858028
253 2 0.145044 0.89435 0.961551
769 2 0.0423975 0.906731 0.945925
971 2 0.0948887 0.948805 0.866108
14 1 0.0187122 0.837167 0.781737
275 2 0.0402594 0.993262 0.780033
30 1 0.196622 0.920778 0.765401
845 2 0.278332 0.898317 0.756536
353 2 0.00642177 0.755066 0.808307
644 2 0.261659 0.843249 0.970232
37 1 0.235144 0.915098 0.922565
982 2 0.183721 0.886078 0.852949
395 2 0.315867 0.95607 0.969039
477 2 0.310151 0.952056 0.85423
824 2 0.429727 0.984252 0.806016
916 2 0.379371 0.876304 0.814601
722 2 0.367566 0.85487 0.920414
808 2 0.469793 0.87621 0.886115
192 1 0.407515 0.938106 0.883251
608 2 0.0993281 0.752171 0.752341
466 2 0.42522 0.92982 0.981644
671 2 0.306459 0.772741 0.761097
484 2 0.211365 0.991157 0.839205
344 2 0.0898434 0.99839 0.977537
739 2 0.488734 0.976727 0.90497
478 2 0.375704 0.574262 0.991036
564 2 0.201882 0.992637 0.960048
108 1 0.124398 0.730816 0.998068
263 2 0.191828 0.564941 0.757534
847 2 0.575656 0.0555147 0.0307485
828 2 0.623065 0.0481031 0.132982
938 2 0.564263 0.152558 0.0962078
881 2 0.597611 0.115152 0.244236
719 2 0.556475 0.012156 0.22526
408 2 0.515151 0.0311137 0.124378
338 2 0.666972 0.126582 0.0480145
677 2 0.687858 0.0312591 0.214028
670 2 0.751997 0.0595996 0.0143226
636 2 0.732966 0.0848984 0.131137
186 1 0.757154 0.148856 0.0623613
366 2 0.718408 0.139118 0.239877
303 2 0.768017 0.246657 0.248431
781 2 0.885428 0.487854 0.111894
24 1 0.770328 0.0623682 0.218197
750 2 0.849303 0.101854 0.0871241
953 2 0.857994 0.0669161 0.200594
757 2 0.95329 0.0830811 0.0652482
870 2 0.963538 0.0818657 0.174165
875 2 0.895089 0.16431 0.160083
585 2 0.938281 0.36273 0.0886894
103 1 0.626355 0.214636 0.0703457
471 2 0.518972 0.243284 0.0637468
374 2 0.617514 0.304419 0.060789
984 2 0.592899 0.252711 0.148804
36 1 0.612746 0.308695 0.220462
648 2 0.529784 0.328957 0.214402
126 1 0.828044 0.00816634 0.0444915
400 2 0.652077 0.152423 0.159013
822 2 0.715319 0.228193 0.0670989
927 2 0.782531 0.184172 0.156796
681 2 0.696891 0.277929 0.163451
641 2 0.841845 0.327476 0.0477415
213 2 0.806041 0.291783 0.144797
89 1 0.696761 0.311889 0.00971003
456 2 0.507197 0.344244 0.108265
469 2 0.85733 0.446815 0.243696
220 2 0.819961 0.217037 0.054042
966 2 0.920038 0.192571 0.0486714
185 1 0.972853 0.205201 0.194921
551 2 0.912915 0.26291 0.133468
283 2 0.874406 0.254584 0.227393
698 2 0.544578 0.364039 0.00691409
129 1 0.527471 0.420806 0.207183
885 2 0.587854 0.495461 0.196386
603 2 0.628085 0.371079 0.143718
581 2 0.550517 0.44231 0.115354
678 2 0.681872 0.477038 0.114264
835 2 0.526179 0.489763 0.0154007
486 2 0.642606 0.4114 0.0420457
514 2 0.993444 0.462934 0.0835996
897 2 0.688559 0.481776 0.222623
994 2 0.736438 0.349411 0.0845359
455 2 0.800476 0.450108 0.0487914
375 2 0.733967 0.391535 0.193014
33 1 0.718906 0.495303 0.0322791
980 2 0.784878 0.482005 0.153825
136 1 0.922744 0.420428 0.173203
928 2 0.897503 0.434329 0.0136037
584 2 0.913501 0.351777 0.237836
214 2 0.843651 0.390682 0.147806
417 2 0.565542 0.052994 0.348165
912 2 0.59868 0.133673 0.456437
92 1 0.537106 0.138019 0.393072
5 1 0.669364 0.0782894 0.304459
772 2 0.61227 0.158188 0.342761
958 2 0.532089 0.0401156 0.454302
280 2 0.634525 0.0186698 0.469877
317 2 0.504754 0.139911 0.310813
538 2 0.693942 0.0938837 0.389599
612 2 0.753568 0.0570515 0.308652
104 1 0.766121 0.139258 0.420746
877 2 0.793179 0.0196671 0.417114
664 2 0.737485 0.176594 0.334361
550 2 0.703563 0.104024 0.494308
995 2 0.827231 0.107726 0.473895
676 2 0.839848 0.110469 0.368446
425 2 0.868683 0.0168089 0.321767
474 2 0.899594 0.0245961 0.423607
865 2 0.957796 0.085533 0.348077
974 2 0.919799 0.149061 0.453272
121 1 0.926684 0.0580497 0.267616
743 2 0.648203 0.222908 0.259017
83 1 0.59822 0.229794 0.460187
209 2 0.548425 0.237414 0.372264
651 2 0.642832 0.292462 0.412693
111 1 0.543353 0.329785 0.384743
586 2 0.592296 0.322068 0.313142
137 1 0.932674 0.368047 0.411989
257 2 0.537328 0.222428 0.257473
557 2 0.516112 0.214641 0.480455
81 1 0.673794 0.252161 0.343943
923 2 0.687401 0.193355 0.425806
154 1 0.755767 0.287213 0.457083
909 2 0.756366 0.280843 0.359811
544 2 0.698993 0.31641 0.271336
180 1 0.819035 0.22096 0.324875
795 2 0.968727 0.254863 0.269543
718 2 0.832411 0.337781 0.439451
386 2 0.826939 0.223535 0.417289
562 2 0.874317 0.300108 0.345127
324 2 0.923309 0.266136 0.455056
276 2 0.918873 0.201492 0.344973
193 1 0.532232 0.47582 0.393531
299 2 0.504981 0.462607 0.479967
39 1 0.547097 0.496821 0.272309
742 2 0.630948 0.478894 0.325393
246 2 0.587824 0.411483 0.421697
206 2 0.542078 0.419025 0.31796
173 1 0.63233 0.365351 0.493108
347 2 0.884226 0.41536 0.358117
97 1 0.723435 0.484202 0.362931
491 2 0.72329 0.366056 0.4755
284 2 0.695759 0.478228 0.448101
2 1 0.802248 0.366404 0.345918
230 2 0.6871 0.381228 0.366159
354 2 0.76235 0.433652 0.295822
537 2 0.784839 0.431587 0.407344
224 2 0.952549 0.445071 0.283041
125 1 0.864938 0.434285 0.451868
622 2 0.957692 0.454383 0.44218
35 1 0.954794 0.35014 0.317124
575 2 0.549418 0.317276 0.477323
832 2 0.802702 0.344594 0.261361
511 2 0.94647 0.149911 0.257996
530 2 0.833452 0.144916 0.27064
932 2 0.623494 0.401427 0.250442
334 2 0.582856 0.116736 0.572236
20 1 0.882159 0.364874 0.678712
448 2 0.589415 0.0574001 0.663592
57 1 0.853782 0.185175 0.520536
90 1 0.576005 0.0300976 0.544167
500 2 0.898157 0.429152 0.613118
904 2 0.806791 0.0151982 0.530326
439 2 0.697897 0.109234 0.697056
599 2 0.775071 0.0610876 0.632085
55 1 0.768572 0.108931 0.548444
690 2 0.691383 0.145073 0.593565
871 2 0.659861 0.0359717 0.583947
522 2 0.808807 0.0183589 0.728116
385 2 0.941021 0.0310598 0.525927
515 2 0.86593 0.110941 0.683796
959 2 0.88314 0.105028 0.567086
341 2 0.951316 0.0326284 0.713816
365 2 0.974139 0.1223 0.630492
833 2 0.867025 0.0110307 0.624894
512 2 0.610709 0.172408 0.672409
699 2 0.502761 0.191361 0.590252
621 2 0.503963 0.317633 0.595002
6 1 0.655699 0.182912 0.520394
191 1 0.637034 0.289219 0.652019
939 2 0.605963 0.23692 0.586641
800 2 0.535552 0.247072 0.678536
165 1 0.675496 0.205862 0.749156
147 1 0.996484 0.0429915 0.599206
318 2 0.795451 0.194288 0.72071
396 2 0.679288 0.268973 0.515318
894 2 0.714805 0.232834 0.668454
95 1 0.744888 0.243234 0.583834
592 2 0.815316 0.283945 0.653057
667 2 0.825503 0.282633 0.533041
896 2 0.800135 0.173749 0.614925
696 2 0.765564 0.199828 0.504073
807 2 0.986918 0.49028 0.660208
406 2 0.910355 0.375278 0.509494
889 2 0.946685 0.299842 0.695006
668 2 0.909937 0.207856 0.649991
714 2 0.946153 0.200858 0.550531
290 2 0.942005 0.311956 0.588863
106 1 0.992598 0.27695 0.521382
989 2 0.943123 0.411742 0.734039
139 1 0.528549 0.452321 0.697343
563 2 0.619895 0.343734 0.580903
840 2 0.628277 0.466327 0.723301
411 2 0.569577 0.360519 0.683497
244 2 0.584668 0.453453 0.631239
475 2 0.621067 0.454389 0.526144
141 1 0.536693 0.402425 0.562135
76 1 0.853389 0.344504 0.595725
490 2 0.720658 0.449364 0.577467
86 1 0.743693 0.32418 0.688498
977 2 0.731904 0.33925 0.586071
351 2 0.678688 0.377465 0.675752
786 2 0.798981 0.4003 0.654847
265 2 0.736982 0.48631 0.688452
633 2 0.80866 0.41824 0.527995
568 2 0.994614 0.431277 0.558916
825 2 0.622177 0.286558 0.739957
967 2 0.501011 0.00974437 0.725892
72 1 0.586155 0.116641 0.855047
683 2 0.537375 0.0805073 0.922218
701 2 0.657078 0.0572687 0.844549
918 2 0.539503 0.0405839 0.821266
553 2 0.9406 0.486078 0.907947
783 2 0.9911 0.391533 0.852885
13 1 0.858129 0.495215 0.849431
777 2 0.675184 0.137926 0.914143
262 2 0.656734 0.039573 0.951601
27 1 0.767431 0.0920342 0.927714
306 2 0.725243 0.15163 0.797059
313 2 0.83829 0.126612 0.789294
452 2 0.780505 0.0552719 0.839054
84 1 0.724819 0.0448529 0.765304
915 2 0.816981 0.000545226 0.940885
849 2 0.918554 0.0393167 0.976349
243 2 0.968421 0.118701 0.939188
640 2 0.872925 0.0801115 0.886491
18 1 0.891209 0.0499361 0.780879
979 2 0.842143 0.114751 0.982698
890 2 0.997507 0.415244 0.984638
23 1 0.726942 0.0094471 0.906273
867 2 0.966305 0.0637506 0.8284
71 1 0.609558 0.199573 0.907289
908 2 0.555956 0.265998 0.94994
921 2 0.517948 0.182101 0.887403
754 2 0.619267 0.189468 0.818835
82 1 0.549282 0.250458 0.837127
357 2 0.620076 0.294649 0.860028
973 2 0.580423 0.15623 0.984918
791 2 0.813579 0.168116 0.885041
202 2 0.657214 0.242393 0.969074
4 1 0.808379 0.206503 0.810809
673 2 0.724054 0.23073 0.868247
663 2 0.77771 0.284541 0.962622
315 2 0.830635 0.289456 0.861445
737 2 0.753486 0.177349 0.974571
454 2 0.884092 0.243623 0.769204
197 1 0.969033 0.226273 0.79419
602 2 0.940933 0.28847 0.87055
951 2 0.923372 0.1756 0.855941
601 2 0.871223 0.231614 0.944117
498 2 0.996135 0.229478 0.944923
302 2 0.531625 0.326819 0.780685
148 1 0.930096 0.339199 0.784854
899 2 0.539218 0.450957 0.783062
888 2 0.944083 0.316639 0.979703
79 1 0.613277 0.495775 0.820658
872 2 0.542164 0.37212 0.892289
167 1 0.574451 0.430906 0.962859
631 2 0.631233 0.386195 0.800864
804 2 0.635428 0.350424 0.948912
745 2 0.653297 0.443977 0.887652
267 2 0.714983 0.335957 0.883023
638 2 0.723833 0.421976 0.976853
735 2 0.769319 0.449107 0.87537
182 1 0.795759 0.364725 0.833861
410 2 0.73508 0.401343 0.76651
937 2 0.739645 0.275186 0.766345
727 2 0.592247 0.105589 0.761109
242 2 0.881094 0.395831 0.836699
296 2 0.813755 0.466327 0.77191
74 1 0.927617 0.379682 0.920781
528 2 0.941175 0.49722 0.800559
446 2 0.836118 0.390494 0.93816
517 2 0.831166 0.338233 0.756369
87 1 0.568151 0.201551 0.750086
343 2 0.94132 0.148908 0.754804
47 1 0.65811 0.552125 0.155957
42 1 0.616379 0.659751 0.0531438
460 2 0.570219 0.58067 0.101999
506 2 0.658227 0.639651 0.139671
376 2 0.521798 0.613512 0.208628
127 1 0.506034 0.515445 0.13139
172 1 0.772521 0.505454 0.248124
232 2 0.72249 0.575972 0.0784519
331 2 0.824689 0.65214 0.121775
226 2 0.739051 0.574659 0.203008
195 1 0.759003 0.631075 0.0170808
437 2 0.825885 0.572363 0.0487556
48 1 0.747381 0.661276 0.168029
333 2 0.8534 0.568266 0.191955
843 2 0.935959 0.587688 0.112431
497 2 0.895091 0.646592 0.0158253
541 2 0.906838 0.656386 0.229845
231 2 0.933108 0.537555 0.0106984
672 2 0.961674 0.5052 0.194736
583 2 0.532591 0.684112 0.11602
377 2 0.626934 0.73992 0.0927742
926 2 0.607389 0.713902 0.205145
844 2 0.506486 0.762338 0.0507963
731 2 0.660361 0.814535 0.219744
946 2 0.557224 0.804066 0.160176
691 2 0.996124 0.676891 0.0614281
259 2 0.721216 0.689595 0.0704673
687 2 0.805413 0.710364 0.227206
914 2 0.713178 0.747745 0.159903
998 2 0.766764 0.840319 0.188496
632 2 0.719509 0.792882 0.0517084
442 2 0.815127 0.771172 0.119604
992 2 0.818019 0.723706 0.0102293
752 2 0.924714 0.759399 0.0237462
183 1 0.957174 0.72572 0.205551
766 2 0.920755 0.712638 0.122485
943 2 0.881947 0.783296 0.207084
558 2 0.897875 0.830798 0.0933927
135 1 0.514655 0.884478 0.137493
801 2 0.968998 0.857802 0.0120379
705 2 0.58543 0.941627 0.145665
710 2 0.580969 0.851158 0.0533845
237 2 0.517007 0.948045 0.0470597
328 2 0.625701 0.959578 0.0221545
740 2 0.678851 0.86656 0.12436
419 2 0.574157 0.888373 0.240291
91 1 0.814088 0.805066 0.0409045
985 2 0.740992 0.952285 0.00617242
567 2 0.685981 0.925847 0.215911
122 1 0.76222 0.928483 0.172421
489 2 0.702224 0.970891 0.112945
152 1 0.673641 0.880388 0.0333591
669 2 0.977374 0.974614 0.0250974
863 2 0.779604 0.892013 0.0869032
272 2 0.799842 0.970471 0.243158
555 2 0.857001 0.90464 0.156202
606 2 0.972192 0.901459 0.119276
901 2 0.926184 0.971653 0.228849
565 2 0.959563 0.856432 0.221203
235 2 0.874188 0.91933 0.0374107
204 2 0.992263 0.790143 0.116479
935 2 0.917006 0.996453 0.114063
360 2 0.803832 0.997842 0.135017
51 1 0.602121 0.502538 0.0596069
713 2 0.656523 0.646356 0.35419
67 1 0.549329 0.615953 0.410398
175 1 0.643913 0.561055 0.373384
802 2 0.553251 0.566166 0.337364
250 2 0.590286 0.528948 0.434178
492 2 0.645827 0.619129 0.460797
426 2 0.61944 0.602045 0.25121
443 2 0.832843 0.699832 0.495622
546 2 0.715994 0.552072 0.302998
203 2 0.741951 0.565257 0.411036
69 1 0.748699 0.648367 0.348641
895 2 0.811508 0.614279 0.285111
535 2 0.8132 0.515419 0.48045
158 1 0.772084 0.610815 0.487908
846 2 0.831391 0.631431 0.391242
856 2 0.81487 0.519086 0.334015
861 2 0.940553 0.629653 0.366001
292 2 0.895738 0.537114 0.407511
620 2 0.54743 0.774584 0.490019
598 2 0.904057 0.539159 0.29348
369 2 0.904855 0.612398 0.487495
805 2 0.50356 0.67615 0.306217
10 1 0.523981 0.797832 0.387965
198 1 0.606033 0.70501 0.295046
308 2 0.567351 0.719591 0.374927
462 2 0.563486 0.785636 0.27945
736 2 0.601936 0.838322 0.410656
826 2 0.646764 0.742199 0.45169
332 2 0.961262 0.861066 0.338865
950 2 0.512116 0.677481 0.463329
29 1 0.724168 0.993326 0.483557
282 2 0.701327 0.675104 0.260367
304 2 0.666817 0.764402 0.330758
996 2 0.741214 0.695759 0.429753
336 2 0.781989 0.733415 0.333446
160 1 0.803839 0.773423 0.436714
337 2 0.724864 0.834501 0.411826
73 1 0.829189 0.798127 0.281968
157 1 0.961362 0.66806 0.448008
458 2 0.939989 0.821193 0.433613
78 1 0.860535 0.684406 0.314802
358 2 0.879952 0.733061 0.401922
534 2 0.918527 0.766643 0.300251
818 2 0.99621 0.692443 0.275458
349 2 0.841799 0.826242 0.367696
16 1 0.538457 0.962786 0.303604
346 2 0.571962 0.941983 0.395697
907 2 0.651786 0.881 0.333269
911 2 0.631525 0.984947 0.306428
588 2 0.518374 0.871408 0.334641
857 2 0.665696 0.908766 0.467425
401 2 0.778104 0.924031 0.467151
142 1 0.718096 0.9663 0.290289
449 2 0.700249 0.981476 0.385822
892 2 0.751209 0.841837 0.302118
251 2 0.79447 0.930221 0.346891
708 2 0.978035 0.973307 0.352336
573 2 0.859816 0.881984 0.274275
529 2 0.879772 0.916047 0.427422
58 1 0.902673 0.930921 0.335178
723 2 0.845023 0.83568 0.485091
151 1 0.734849 0.762525 0.257521
432 2 0.997601 0.570003 0.450793
222 2 0.997464 0.926122 0.448557
941 2 0.573163 0.618097 0.616751
465 2 0.545991 0.541033 0.686439
269 2 0.649454 0.592416 0.713042
841 2 0.656098 0.534349 0.613221
115 1 0.660352 0.621159 0.57279
384 2 0.555187 0.585479 0.514699
485 2 0.821316 0.510092 0.608823
166 1 0.570165 0.515839 0.572313
80 1 0.797181 0.548927 0.715486
593 2 0.744503 0.591777 0.641829
688 2 0.82079 0.61007 0.563451
611 2 0.720561 0.551971 0.532061
387 2 0.878666 0.928607 0.534041
200 1 0.7414 0.662828 0.70422
988 2 0.8445 0.614912 0.673909
834 2 0.928451 0.573159 0.617246
615 2 0.971159 0.572236 0.723339
600 2 0.816203 0.713128 0.726162
831 2 0.989373 0.922331 0.720832
582 2 0.994343 0.654208 0.652525
913 2 0.904547 0.502718 0.531394
22 1 0.548691 0.791729 0.583801
662 2 0.562731 0.660699 0.729762
559 2 0.624186 0.801003 0.662059
887 2 0.610426 0.702292 0.559501
216 2 0.519396 0.748409 0.655211
379 2 0.532146 0.816141 0.744755